 Gaussian 09, Revision D.01,
 Gaussian 09:  ES64L-G09RevD.01 24-Apr-2013

 -------------------------------------------------
 # B3LYP/6-31G* SCF=XQC opt(MaxCycles=350 , tight)
 -------------------------------------------------

 ------
 UNK_CS
 ------
 Symbolic Z-matrix:
 Charge =  0 Multiplicity = 1

 SCF Done:  E(RB3LYP) =  -438.697605741     A.U. after   12 cycles
 SCF Done:  E(RB3LYP) =  -438.698311033     A.U. after   11 cycles
 SCF Done:  E(RB3LYP) =  -438.698345338     A.U. after   10 cycles
 SCF Done:  E(RB3LYP) =  -438.698348180     A.U. after    8 cycles
 SCF Done:  E(RB3LYP) =  -438.698348430     A.U. after    7 cycles
 SCF Done:  E(RB3LYP) =  -438.698348444     A.U. after    6 cycles
 Optimization completed.
    -- Stationary point found.

                         Standard orientation:
 ---------------------------------------------------------------------
 Center     Atomic      Atomic             Coordinates (Angstroms)
 Number     Number       Type             X           Y           Z
 ---------------------------------------------------------------------
      1          6           0       -1.165036    0.019524    0.000000
      2         16           0        0.667791   -0.087174    0.000000
      3          1           0       -1.535939    0.522833   -0.895759
      4          1           0       -1.535939    0.522830    0.895761
      5          1           0       -1.530786   -1.009950   -0.000002
      6          1           0        0.908233    1.241923    0.000000
 ---------------------------------------------------------------------

 The electronic state is 1-A.
 Alpha  occ. eigenvalues --  -88.87420 -10.21720  -7.93741  -5.90253  -5.89889
 Alpha  occ. eigenvalues --   -5.89152  -0.77804  -0.64773  -0.45002  -0.43052
 Alpha  occ. eigenvalues --   -0.39302  -0.33276  -0.23638
 Alpha virt. eigenvalues --    0.02774   0.07066   0.12408   0.14511   0.15027
 Alpha virt. eigenvalues --    0.34888   0.36263   0.38048   0.38619   0.50610
 Alpha virt. eigenvalues --    0.52464   0.58341   0.72426   0.77233   0.83227

 Mulliken charges:
               1
     1  C   -0.577403
     2  S   -0.079556
     3  H    0.185791
     4  H    0.185791
     5  H    0.190082
     6  H    0.095294
 Sum of Mulliken charges =   0.00000

 Dipole moment (field-independent basis, Debye):
    X=             -1.4313    Y=              0.9823    Z=              0.0000  Tot=              1.7359
 Quadrupole moment (field-independent basis, Debye-Ang):
   XX=            -19.9956   YY=            -19.2453   ZZ=            -22.4764
   XY=              1.4661   XZ=              0.0000   YZ=              0.0000

 Normal termination of Gaussian 09 at Tue Jul  9 13:44:17 2019.
