 Gaussian 09, Revision D.01,
 Gaussian 09:  ES64L-G09RevD.01 24-Apr-2013

 --------------------------------------
 # B3LYP/6-31G* SCF=XQC freq geom=check
 --------------------------------------

 ------
 UNK_CS
 ------
 Structure from the checkpoint file:  "lig.chk"
 Charge =  0 Multiplicity = 1

                         Standard orientation:
 ---------------------------------------------------------------------
 Center     Atomic      Atomic             Coordinates (Angstroms)
 Number     Number       Type             X           Y           Z
 ---------------------------------------------------------------------
      1          6           0       -1.165036    0.019524    0.000000
      2         16           0        0.667791   -0.087174    0.000000
      3          1           0       -1.535939    0.522833   -0.895759
      4          1           0       -1.535939    0.522830    0.895761
      5          1           0       -1.530786   -1.009950   -0.000002
      6          1           0        0.908233    1.241923    0.000000
 ---------------------------------------------------------------------

 SCF Done:  E(RB3LYP) =  -438.698348444     A.U. after   12 cycles

 The electronic state is 1-A.
 Alpha  occ. eigenvalues --  -88.87420 -10.21720  -7.93741  -5.90253  -5.89889
 Alpha  occ. eigenvalues --   -5.89152  -0.77804  -0.64773  -0.45002  -0.43052
 Alpha  occ. eigenvalues --   -0.39302  -0.33276  -0.23638
 Alpha virt. eigenvalues --    0.02774   0.07066   0.12408   0.14511   0.15027
 Alpha virt. eigenvalues --    0.34888   0.36263   0.38048   0.38619   0.50610
 Alpha virt. eigenvalues --    0.52464   0.58341   0.72426   0.77233   0.83227

 Mulliken charges:
               1
     1  C   -0.577403
     2  S   -0.079556
     3  H    0.185791
     4  H    0.185791
     5  H    0.190082
     6  H    0.095294
 Sum of Mulliken charges =   0.00000

 Dipole moment (field-independent basis, Debye):
    X=             -1.4313    Y=              0.9823    Z=              0.0000  Tot=              1.7359
 Quadrupole moment (field-independent basis, Debye-Ang):
   XX=            -19.9956   YY=            -19.2453   ZZ=            -22.4764
   XY=              1.4661   XZ=              0.0000   YZ=              0.0000

  Exact polarizability:  32.492   1.220  25.744   0.000   0.000  20.788
 Approx polarizability:  43.142   2.466  36.775   0.000   0.000  27.560

                      1                      2                      3
                      A                      A                      A
 Frequencies --    248.9092               703.3223               808.9217
 Red. masses --      1.0297                 5.2913                 1.0694
 Frc consts  --      0.0376                 1.5421                 0.4123
 IR Inten    --     18.2040                 2.6306                 0.9658

                      4                      5                      6
                      A                      A                      A
 Frequencies --    991.2188              1117.7728              1395.3388
 Red. masses --      1.1776                 1.2286                 1.1495
 Frc consts  --      0.6817                 0.9044                 1.3186
 IR Inten    --      6.7756                21.6422                10.0305

                      7                      8                      9
                      A                      A                      A
 Frequencies --   1507.5314              1517.3842              2683.1034
 Red. masses --      1.0527                 1.0505                 1.0387
 Frc consts  --      1.4095                 1.4250                 4.4058
 IR Inten    --      5.5808                 8.7231                25.0930

                     10                     11                     12
                      A                      A                      A
 Frequencies --   3075.5444              3160.9367              3165.9621
 Red. masses --      1.0298                 1.1088                 1.1046
 Frc consts  --      5.7393                 6.5273                 6.5234
 IR Inten    --     26.1014                11.5301                 8.4728

 - Thermochemistry -
 -------------------
 Temperature   298.150 Kelvin.  Pressure   1.00000 Atm.
 Atom     1 has atomic number  6 and mass  12.00000

 Molecular mass:    48.00337 amu.
 Principal axes and moments of inertia in atomic units:
                           1         2         3
     Eigenvalues --    17.63541 142.34400 148.42824
           X            0.99962   0.02755   0.00000
           Y           -0.02755   0.99962   0.00000
           Z            0.00000   0.00000   1.00000
 This molecule is an asymmetric top.
 Rotational symmetry number  1.
 Rotational temperatures (Kelvin)      4.91136     0.60848     0.58354
 Rotational constants (GHZ):         102.33623    12.67873    12.15902
 Zero-point vibrational energy     121875.2 (Joules/Mol)
                                   29.12888 (Kcal/Mol)
 Warning -- explicit consideration of   1 degrees of freedom as
           vibrations may cause significant error
 Vibrational temperatures:    358.12  1011.92  1163.86  1426.14  1608.22
          (Kelvin)           2007.58  2169.00  2183.17  3860.38  4425.02
                             4547.88  4555.11

 Zero-point correction=                           0.046420 (Hartree/Particle)
 Thermal correction to Energy=                    0.050006
 Thermal correction to Enthalpy=                  0.050950
 Thermal correction to Gibbs Free Energy=         0.022197
 Sum of electronic and zero-point Energies=           -438.651929
 Sum of electronic and thermal Energies=              -438.648343
 Sum of electronic and thermal Enthalpies=            -438.647398
 Sum of electronic and thermal Free Energies=         -438.676151

                     E (Thermal)             CV                S
                      KCal/Mol        Cal/Mol-Kelvin    Cal/Mol-Kelvin
 Total                   31.379             10.089             60.516
 Electronic               0.000              0.000              0.000
 Translational            0.889              2.981             37.530
 Rotational               0.889              2.981             20.549
 Vibrational             29.602              4.128              2.436
 Vibration     1          0.662              1.765              1.738

 Optimization completed.
    -- Stationary point found.
 Normal termination of Gaussian 09 at Tue Jul  9 13:44:21 2019.
