 Gaussian 09, Revision D.01,
 Gaussian 09:  ES64L-G09RevD.01 24-Apr-2013

 ------------------------------------------------------------------
 # B3LYP/6-31G* SCF=XQC SCRF=(IPCM,Read) density=current OUTPUT=WFX
 ------------------------------------------------------------------

 ------
 UNK_CS
 ------
 Symbolic Z-matrix:
 Charge =  0 Multiplicity = 1

                         Standard orientation:
 ---------------------------------------------------------------------
 Center     Atomic      Atomic             Coordinates (Angstroms)
 Number     Number       Type             X           Y           Z
 ---------------------------------------------------------------------
      1          6           0       -1.164646    0.019518    0.000000
      2         16           0        0.667567   -0.087145    0.000000
      3          1           0       -1.535425    0.522658   -0.895459
      4          1           0       -1.535425    0.522655    0.895461
      5          1           0       -1.530273   -1.009612   -0.000002
      6          1           0        0.907929    1.241507    0.000000
 ---------------------------------------------------------------------

 SCF Done:  E(RB3LYP) =  -438.698347940     A.U. after   12 cycles
 SCF Done:  E(RB3LYP) =  -438.700240942     A.U. after   11 cycles
 SCF Done:  E(RB3LYP) =  -438.700364679     A.U. after    9 cycles
 SCF Done:  E(RB3LYP) =  -438.700376801     A.U. after    8 cycles
 SCF Done:  E(RB3LYP) =  -438.700378074     A.U. after    7 cycles
 SCF Done:  E(RB3LYP) =  -438.700378210     A.U. after    7 cycles

 The electronic state is 1-A.
 Alpha  occ. eigenvalues --  -88.87579 -10.21400  -7.93911  -5.90412  -5.90053
 Alpha  occ. eigenvalues --   -5.89342  -0.77751  -0.64632  -0.44809  -0.42736
 Alpha  occ. eigenvalues --   -0.39108  -0.33434  -0.23938
 Alpha virt. eigenvalues --    0.02755   0.07123   0.12901   0.14989   0.15519
 Alpha virt. eigenvalues --    0.34720   0.35709   0.37928   0.38098   0.50849
 Alpha virt. eigenvalues --    0.52590   0.58675   0.72503   0.77021   0.83329

 Mulliken charges:
               1
     1  C   -0.578856
     2  S   -0.114812
     3  H    0.193109
     4  H    0.193109
     5  H    0.195611
     6  H    0.111839
 Sum of Mulliken charges =   0.00000

 Dipole moment (field-independent basis, Debye):
    X=             -1.6098    Y=              1.1078    Z=              0.0000  Tot=              1.9541
 Quadrupole moment (field-independent basis, Debye-Ang):
   XX=            -19.9318   YY=            -19.1758   ZZ=            -22.4976
   XY=              1.5415   XZ=              0.0000   YZ=              0.0000

 Normal termination of Gaussian 09 at Tue Jul  9 13:44:28 2019.
